/*--------------------------------*- C++ -*----------------------------------*\
| =========                 |                                                 |
| \\      /  F ield         | foam-extend: Open Source CFD                    |
|  \\    /   O peration     | Version:     4.0                                |
|   \\  /    A nd           | Web:         http://www.foam-extend.org         |
|    \\/     M anipulation  |                                                 |
\*---------------------------------------------------------------------------*/
FoamFile
{
    version     2.0;
    format      ascii;
    class       volVectorField;
    location    "0";
    object      U;
}
// * * * * * * * * * * * * * * * * * * * * * * * * * * * * * * * * * * * * * //

dimensions      [0 1 -1 0 0 0 0];

internalField   nonuniform List<vector> 
135320
(
(0.00657536 0 -0.000786265)
(0.00945489 0 -0.000785658)
(0.0123275 0 -0.000784039)
(0.0151894 0 -0.000781401)
(0.018037 0 -0.000777741)
(0.0208664 0 -0.000773058)
(0.0236742 0 -0.00076735)
(0.0264564 0 -0.000760618)
(0.0292096 0 -0.000752866)
(0.0319299 0 -0.000744097)
(0.0346139 0 -0.000734318)
(0.0372579 0 -0.000723537)
(0.0398583 0 -0.000711763)
(0.0424118 0 -0.000699008)
(0.0449149 0 -0.000685286)
(0.0473641 0 -0.000670611)
(0.0497563 0 -0.000655)
(0.0520881 0 -0.000638471)
(0.0543564 0 -0.000621046)
(0.0565582 0 -0.000602745)
(0.0586905 0 -0.000583593)
(0.0607504 0 -0.000563614)
(0.0627351 0 -0.000542837)
(0.0646419 0 -0.000521288)
(0.0664684 0 -0.000498998)
(0.0682121 0 -0.000475999)
(0.0698706 0 -0.000452322)
(0.0714418 0 -0.000428003)
(0.0729237 0 -0.000403076)
(0.0743142 0 -0.000377577)
(0.0756116 0 -0.000351544)
(0.0768143 0 -0.000325016)
(0.0779208 0 -0.000298032)
(0.0789297 0 -0.000270632)
(0.0798397 0 -0.000242857)
(0.08065 0 -0.000214749)
(0.0813594 0 -0.00018635)
(0.0819674 0 -0.000157702)
(0.0824732 0 -0.000128848)
(0.0828765 0 -9.9832e-05)
(0.0831769 0 -7.06971e-05)
(0.0833743 0 -4.14866e-05)
(0.0834688 0 -1.22439e-05)
(0.0834605 0 1.69875e-05)
(0.0833496 0 4.61647e-05)
(0.0831368 0 7.52448e-05)
(0.0828226 0 0.000104186)
(0.0824078 0 0.000132945)
(0.0818932 0 0.000161482)
(0.08128 0 0.000189755)
(0.0805693 0 0.000217726)
(0.0797624 0 0.000245355)
(0.0788608 0 0.000272603)
(0.0778661 0 0.000299434)
(0.0767799 0 0.000325812)
(0.0756042 0 0.000351701)
(0.0743407 0 0.000377068)
(0.0729916 0 0.00040188)
(0.071559 0 0.000426107)
(0.0700451 0 0.000449718)
(0.0684524 0 0.000472684)
(0.0667831 0 0.000494979)
(0.0650399 0 0.000516576)
(0.0632253 0 0.000537452)
(0.061342 0 0.000557585)
(0.0593928 0 0.000576952)
(0.0573803 0 0.000595535)
(0.0553075 0 0.000613315)
(0.0531773 0 0.000630277)
(0.0509926 0 0.000646404)
(0.0487564 0 0.000661685)
(0.0464717 0 0.000676107)
(0.0441415 0 0.000689659)
(0.041769 0 0.000702334)
(0.0393572 0 0.000714125)
(0.0369093 0 0.000725025)
(0.0344282 0 0.000735031)
(0.0319172 0 0.00074414)
(0.0293794 0 0.000752351)
(0.0268178 0 0.000759663)
(0.0242355 0 0.000766079)
(0.0216356 0 0.0007716)
(0.0190212 0 0.000776232)
(0.0163953 0 0.000779978)
(0.0137609 0 0.000782846)
(0.0111209 0 0.000784843)
(0.00847824 0 0.000785978)
(0.0058359 0 0.000786259)
(0.00319667 0 0.000785697)
(0.000563368 0 0.000784304)
(-0.00206125 0 0.000782092)
(-0.00467449 0 0.000779075)
(-0.00727369 0 0.000775264)
(-0.00985625 0 0.000770676)
(-0.0124196 0 0.000765325)
(-0.0149614 0 0.000759227)
(-0.017479 0 0.000752398)
(-0.0199702 0 0.000744854)
(-0.0224327 0 0.000736613)
(-0.0248642 0 0.000727692)
(-0.0272626 0 0.000718109)
(-0.0296257 0 0.000707882)
(-0.0319516 0 0.00069703)
(-0.0342383 0 0.00068557)
(-0.0364838 0 0.000673521)
(-0.0386863 0 0.000660903)
(-0.0408441 0 0.000647733)
(-0.0429555 0 0.000634032)
(-0.0450189 0 0.000619817)
(-0.0470326 0 0.000605108)
(-0.0489952 0 0.000589924)
(-0.0509053 0 0.000574283)
(-0.0527614 0 0.000558204)
(-0.0545624 0 0.000541705)
(-0.0563069 0 0.000524806)
(-0.0579938 0 0.000507523)
(-0.059622 0 0.000489876)
(-0.0611905 0 0.000471883)
(-0.0626982 0 0.00045356)
(-0.0641443 0 0.000434926)
(-0.0655278 0 0.000415998)
(-0.066848 0 0.000396792)
(-0.0681041 0 0.000377326)
(-0.0692955 0 0.000357617)
(-0.0704215 0 0.00033768)
(-0.0714815 0 0.000317532)
(-0.072475 0 0.000297189)
(-0.0734015 0 0.000276666)
(-0.0742606 0 0.000255979)
(-0.075052 0 0.000235144)
(-0.0757752 0 0.000214175)
(-0.0764302 0 0.000193088)
(-0.0770165 0 0.000171896)
(-0.0775341 0 0.000150615)
(-0.0779828 0 0.000129259)
(-0.0783625 0 0.000107841)
(-0.0786733 0 8.63769e-05)
(-0.0789151 0 6.48796e-05)
(-0.0790879 0 4.33629e-05)
(-0.0791919 0 2.18406e-05)
(-0.0792273 0 3.26178e-07)
(-0.0791941 0 -2.11669e-05)
(-0.0790926 0 -4.26253e-05)
(-0.0789232 0 -6.40357e-05)
(-0.078686 0 -8.53849e-05)
(-0.0783815 0 -0.00010666)
(-0.07801 0 -0.000127847)
(-0.077572 0 -0.000148933)
(-0.0770679 0 -0.000169906)
(-0.0764983 0 -0.000190751)
(-0.0758637 0 -0.000211457)
(-0.0751647 0 -0.000232009)
(-0.074402 0 -0.000252395)
(-0.0735761 0 -0.000272602)
(-0.0726879 0 -0.000292616)
(-0.0717381 0 -0.000312425)
(-0.0707274 0 -0.000332014)
(-0.0696567 0 -0.000351371)
(-0.0685268 0 -0.000370482)
(-0.0673388 0 -0.000389335)
(-0.0660934 0 -0.000407915)
(-0.0647918 0 -0.00042621)
(-0.0634349 0 -0.000444205)
(-0.0620237 0 -0.000461888)
(-0.0605595 0 -0.000479246)
(-0.0590433 0 -0.000496264)
(-0.0574763 0 -0.000512929)
(-0.0558598 0 -0.000529227)
(-0.054195 0 -0.000545146)
(-0.0524831 0 -0.000560672)
(-0.0507256 0 -0.000575792)
(-0.0489237 0 -0.000590492)
(-0.047079 0 -0.000604759)
(-0.0451927 0 -0.00061858)
(-0.0432665 0 -0.000631942)
(-0.0413019 0 -0.000644833)
(-0.0393003 0 -0.000657239)
(-0.0372634 0 -0.000669147)
(-0.0351927 0 -0.000680547)
(-0.03309 0 -0.000691424)
(-0.0309569 0 -0.000701769)
(-0.0287951 0 -0.000711568)
(-0.0266064 0 -0.00072081)
(-0.0243925 0 -0.000729485)
(-0.0221552 0 -0.000737581)
(-0.0198965 0 -0.000745089)
(-0.017618 0 -0.000751997)
(-0.0153218 0 -0.000758298)
(-0.0130096 0 -0.00076398)
(-0.0106834 0 -0.000769036)
(-0.00834526 0 -0.000773458)
(-0.00599699 0 -0.000777237)
(-0.00364063 0 -0.000780366)
(-0.00127815 0 -0.000782838)
(0.00108842 0 -0.000784648)
(0.00345708 0 -0.00078579)
(0.0058258 0 -0.000786258)
(0.00819254 0 -0.000786049)
(0.0105553 0 -0.000785158)
(0.0129119 0 -0.000783584)
(0.0152604 0 -0.000781322)
(0.0175988 0 -0.000778373)
(0.019925 0 -0.000774734)
(0.0222369 0 -0.000770406)
(0.0245325 0 -0.000765389)
(0.0268098 0 -0.000759685)
(0.0290669 0 -0.000753295)
(0.0313015 0 -0.000746223)
(0.0335119 0 -0.000738472)
(0.035696 0 -0.000730046)
(0.0378519 0 -0.000720952)
(0.0399777 0 -0.000711194)
(0.0420714 0 -0.00070078)
(0.0441312 0 -0.000689717)
(0.0461553 0 -0.000678013)
(0.0481418 0 -0.000665679)
(0.0500889 0 -0.000652723)
(0.051995 0 -0.000639157)
(0.0538583 0 -0.000624992)
(0.0556771 0 -0.00061024)
(0.0574499 0 -0.000594915)
(0.0591751 0 -0.000579029)
(0.0608511 0 -0.000562598)
(0.0624764 0 -0.000545636)
(0.0640496 0 -0.00052816)
(0.0655694 0 -0.000510185)
(0.0670344 0 -0.000491729)
(0.0684433 0 -0.000472809)
(0.069795 0 -0.000453445)
(0.0710882 0 -0.000433653)
(0.0723219 0 -0.000413455)
(0.073495 0 -0.000392869)
(0.0746065 0 -0.000371916)
(0.0756556 0 -0.000350617)
(0.0766414 0 -0.000328993)
(0.0775631 0 -0.000307065)
(0.07842 0 -0.000284856)
(0.0792114 0 -0.000262387)
(0.0799368 0 -0.000239682)
(0.0805955 0 -0.000216762)
(0.0811873 0 -0.000193651)
(0.0817116 0 -0.000170372)
(0.0821682 0 -0.000146948)
(0.0825569 0 -0.000123403)
(0.0828773 0 -9.97594e-05)
(0.0831295 0 -7.60417e-05)
(0.0833134 0 -5.22731e-05)
(0.0834291 0 -2.84769e-05)
(0.0834765 0 -4.67676e-06)
(0.0834559 0 1.91042e-05)
(0.0833674 0 4.28427e-05)
(0.0832115 0 6.65157e-05)
(0.0829884 0 9.01006e-05)
(0.0826985 0 0.000113575)
(0.0823424 0 0.000136915)
(0.0819205 0 0.000160101)
(0.0814335 0 0.00018311)
(0.0808821 0 0.00020592)
(0.0802669 0 0.000228512)
(0.0795888 0 0.000250863)
(0.0788485 0 0.000272955)
(0.078047 0 0.000294767)
(0.0771851 0 0.00031628)
(0.076264 0 0.000337476)
(0.0752846 0 0.000358336)
(0.074248 0 0.000378843)
(0.0731553 0 0.00039898)
(0.0720078 0 0.000418729)
(0.0708066 0 0.000438076)
(0.069553 0 0.000457005)
(0.0682483 0 0.000475502)
(0.0668938 0 0.000493551)
(0.0654909 0 0.000511141)
(0.064041 0 0.000528258)
(0.0625456 0 0.00054489)
(0.061006 0 0.000561026)
(0.0594237 0 0.000576656)
(0.0578004 0 0.000591768)
(0.0561374 0 0.000606354)
(0.0544364 0 0.000620405)
(0.052699 0 0.000633914)
(0.0509266 0 0.000646872)
(0.049121 0 0.000659274)
(0.0472837 0 0.000671113)
(0.0454163 0 0.000682385)
(0.0435206 0 0.000693083)
(0.0415981 0 0.000703206)
(0.0396504 0 0.000712749)
(0.0376793 0 0.000721709)
(0.0356863 0 0.000730085)
(0.0336732 0 0.000737876)
(0.0316416 0 0.00074508)
(0.0295931 0 0.000751697)
(0.0275293 0 0.000757728)
(0.0254519 0 0.000763174)
(0.0233626 0 0.000768036)
(0.0212628 0 0.000772317)
(0.0191543 0 0.000776018)
(0.0170387 0 0.000779143)
(0.0149174 0 0.000781696)
(0.0127921 0 0.00078368)
(0.0106643 0 0.000785101)
(0.00853558 0 0.000785962)
(0.00640738 0 0.00078627)
(0.00428122 0 0.000786029)
(0.00215858 0 0.000785247)
(4.08988e-05 0 0.00078393)
(-0.0020704 0 0.000782083)
(-0.0041739 0 0.000779716)
(-0.00626823 0 0.000776834)
(-0.00835204 0 0.000773446)
(-0.010424 0 0.00076956)
(-0.0124828 0 0.000765183)
(-0.0145271 0 0.000760325)
(-0.0165558 0 0.000754994)
(-0.0185676 0 0.000749198)
(-0.0205612 0 0.000742948)
(-0.0225356 0 0.000736252)
(-0.0244895 0 0.000729119)
(-0.0264219 0 0.000721558)
(-0.0283317 0 0.00071358)
(-0.0302178 0 0.000705195)
(-0.0320793 0 0.000696411)
(-0.033915 0 0.000687238)
(-0.0357241 0 0.000677687)
(-0.0375056 0 0.000667768)
(-0.0392586 0 0.000657489)
(-0.0409823 0 0.000646862)
(-0.0426756 0 0.000635896)
(-0.044338 0 0.000624601)
(-0.0459685 0 0.000612987)
(-0.0475663 0 0.000601064)
(-0.0491309 0 0.000588842)
(-0.0506613 0 0.00057633)
(-0.0521571 0 0.000563538)
(-0.0536174 0 0.000550477)
(-0.0550417 0 0.000537155)
(-0.0564294 0 0.000523582)
(-0.05778 0 0.000509768)
(-0.0590928 0 0.000495723)
(-0.0603674 0 0.000481454)
(-0.0616032 0 0.000466972)
(-0.0627998 0 0.000452286)
(-0.0639568 0 0.000437405)
(-0.0650737 0 0.000422338)
(-0.0661501 0 0.000407093)
(-0.0671857 0 0.00039168)
(-0.0681802 0 0.000376107)
(-0.0691331 0 0.000360382)
(-0.0700443 0 0.000344514)
(-0.0709134 0 0.000328511)
(-0.0717402 0 0.000312382)
(-0.0725244 0 0.000296135)
(-0.0732658 0 0.000279777)
(-0.0739643 0 0.000263317)
(-0.0746197 0 0.000246762)
(-0.0752318 0 0.000230121)
(-0.0758006 0 0.000213401)
(-0.0763258 0 0.000196608)
(-0.0768074 0 0.000179752)
(-0.0772454 0 0.000162839)
(-0.0776397 0 0.000145877)
(-0.0779903 0 0.000128872)
(-0.0782971 0 0.000111833)
(-0.0785601 0 9.47655e-05)
(-0.0787795 0 7.76773e-05)
(-0.0789552 0 6.05752e-05)
(-0.0790873 0 4.34661e-05)
(-0.0791758 0 2.63569e-05)
(-0.0792209 0 9.25444e-06)
(-0.0792227 0 -7.83457e-06)
(-0.0791813 0 -2.49034e-05)
(-0.0790969 0 -4.19453e-05)
(-0.0789696 0 -5.89537e-05)
(-0.0787995 0 -7.5922e-05)
(-0.078587 0 -9.28436e-05)
(-0.0783322 0 -0.000109712)
(-0.0780352 0 -0.00012652)
(-0.0776965 0 -0.000143262)
(-0.0773162 0 -0.000159932)
(-0.0768946 0 -0.000176521)
(-0.076432 0 -0.000193025)
(-0.0759287 0 -0.000209437)
(-0.075385 0 -0.00022575)
(-0.0748012 0 -0.000241957)
(-0.0741778 0 -0.000258053)
(-0.073515 0 -0.000274031)
(-0.0728133 0 -0.000289884)
(-0.0720731 0 -0.000305606)
(-0.0712947 0 -0.00032119)
(-0.0704786 0 -0.00033663)
(-0.0696253 0 -0.000351919)
(-0.0687351 0 -0.000367052)
(-0.0678086 0 -0.00038202)
(-0.0668462 0 -0.000396819)
(-0.0658485 0 -0.000411441)
(-0.0648159 0 -0.00042588)
(-0.063749 0 -0.000440129)
(-0.0626484 0 -0.000454183)
(-0.0615146 0 -0.000468033)
(-0.0603481 0 -0.000481675)
(-0.0591496 0 -0.000495101)
(-0.0579196 0 -0.000508304)
(-0.0566588 0 -0.000521279)
(-0.0553678 0 -0.00053402)
(-0.0540473 0 -0.000546518)
(-0.0526979 0 -0.000558769)
(-0.0513202 0 -0.000570766)
(-0.049915 0 -0.000582502)
(-0.048483 0 -0.000593971)
(-0.0470248 0 -0.000605166)
(-0.0455413 0 -0.000616083)
(-0.044033 0 -0.000626713)
(-0.0425009 0 -0.000637052)
(-0.0409456 0 -0.000647093)
(-0.039368 0 -0.000656831)
(-0.0377687 0 -0.000666258)
(-0.0361487 0 -0.00067537)
(-0.0345087 0 -0.000684161)
(-0.0328495 0 -0.000692625)
(-0.031172 0 -0.000700756)
(-0.0294771 0 -0.000708549)
(-0.0277655 0 -0.000715999)
(-0.0260382 0 -0.0007231)
(-0.0242959 0 -0.000729848)
(-0.0225398 0 -0.000736237)
(-0.0207705 0 -0.000742262)
(-0.018989 0 -0.00074792)
(-0.0171962 0 -0.000753204)
(-0.015393 0 -0.000758112)
(-0.0135805 0 -0.000762638)
(-0.0117594 0 -0.00076678)
(-0.00993072 0 -0.000770532)
(-0.00809544 0 -0.000773891)
(-0.0062545 0 -0.000776855)
(-0.00440884 0 -0.000779418)
(-0.00255943 0 -0.00078158)
(-0.000707229 0 -0.000783336)
(0.00114679 0 -0.000784684)
(0.00300164 0 -0.000785622)
(0.00485637 0 -0.000786148)
(0.00671 0 -0.000786259)
(0.00856154 0 -0.000785955)
(0.01041 0 -0.000785233)
(0.0122545 0 -0.000784092)
(0.0140939 0 -0.000782533)
(0.0159273 0 -0.000780553)
(0.0177538 0 -0.000778152)
(0.0195723 0 -0.000775331)
(0.0213819 0 -0.00077209)
(0.0231817 0 -0.000768429)
(0.0249706 0 -0.000764348)
(0.0267477 0 -0.00075985)
(0.0285121 0 -0.000754935)
(0.0302628 0 -0.000749604)
(0.0319988 0 -0.00074386)
(0.0337193 0 -0.000737705)
(0.0354233 0 -0.000731141)
(0.03711 0 -0.000724171)
(0.0387783 0 -0.000716798)
(0.0404275 0 -0.000709025)
(0.0420565 0 -0.000700857)
(0.0436647 0 -0.000692296)
(0.045251 0 -0.000683347)
(0.0468147 0 -0.000674015)
(0.0483549 0 -0.000664304)
(0.0498708 0 -0.000654219)
(0.0513616 0 -0.000643766)
(0.0528265 0 -0.00063295)
(0.0542648 0 -0.000621777)
(0.0556756 0 -0.000610254)
(0.0570582 0 -0.000598386)
(0.0584119 0 -0.00058618)
(0.0597361 0 -0.000573643)
(0.0610299 0 -0.000560783)
(0.0622928 0 -0.000547606)
(0.0635241 0 -0.00053412)
(0.0647231 0 -0.000520333)
(0.0658893 0 -0.000506254)
(0.067022 0 -0.00049189)
(0.0681207 0 -0.00047725)
(0.0691849 0 -0.000462343)
(0.0702139 0 -0.000447177)
(0.0712074 0 -0.000431761)
(0.0721647 0 -0.000416105)
(0.0730856 0 -0.000400219)
(0.0739695 0 -0.000384111)
(0.0748159 0 -0.000367792)
(0.0756246 0 -0.000351271)
(0.0763952 0 -0.000334558)
(0.0771272 0 -0.000317664)
(0.0778205 0 -0.000300598)
(0.0784746 0 -0.000283372)
(0.0790893 0 -0.000265995)
(0.0796645 0 -0.000248478)
(0.0801998 0 -0.000230831)
(0.080695 0 -0.000213066)
(0.08115 0 -0.000195193)
(0.0815647 0 -0.000177222)
(0.0819389 0 -0.000159165)
(0.0822725 0 -0.000141032)
(0.0825654 0 -0.000122835)
(0.0828176 0 -0.000104583)
(0.083029 0 -8.62886e-05)
(0.0831998 0 -6.79619e-05)
(0.0833298 0 -4.96137e-05)
(0.0834191 0 -3.1255e-05)
(0.0834678 0 -1.28964e-05)
(0.083476 0 5.45131e-06)
(0.0834438 0 2.37775e-05)
(0.0833714 0 4.20715e-05)
(0.0832588 0 6.0323e-05)
(0.0831064 0 7.85213e-05)
(0.0829143 0 9.66563e-05)
(0.0826827 0 0.000114718)
(0.0824118 0 0.000132695)
(0.082102 0 0.000150579)
(0.0817536 0 0.000168359)
(0.0813669 0 0.000186026)
(0.0809421 0 0.00020357)
(0.0804797 0 0.000220982)
(0.07998 0 0.000238251)
(0.0794435 0 0.00025537)
(0.0788704 0 0.000272329)
(0.0782614 0 0.00028912)
(0.0776167 0 0.000305732)
(0.0769369 0 0.00032216)
(0.0762225 0 0.000338393)
(0.0754739 0 0.000354424)
(0.0746917 0 0.000370246)
(0.0738764 0 0.00038585)
(0.0730285 0 0.000401228)
(0.0721487 0 0.000416375)
(0.0712374 0 0.000431283)
(0.0702952 0 0.000445944)
(0.0693229 0 0.000460353)
(0.0683208 0 0.000474503)
(0.0672898 0 0.000488389)
(0.0662304 0 0.000502003)
(0.0651432 0 0.000515341)
(0.0640289 0 0.000528397)
(0.0628883 0 0.000541166)
(0.0617218 0 0.000553642)
(0.0605303 0 0.000565823)
(0.0593144 0 0.000577702)
(0.0580748 0 0.000589276)
(0.0568122 0 0.00060054)
(0.0555274 0 0.000611491)
(0.0542209 0 0.000622126)
(0.0528936 0 0.000632441)
(0.0515462 0 0.000642434)
(0.0501793 0 0.0006521)
(0.0487938 0 0.000661439)
(0.0473903 0 0.000670447)
(0.0459697 0 0.000679122)
(0.0445325 0 0.000687464)
(0.0430796 0 0.000695469)
(0.0416117 0 0.000703136)
(0.0401296 0 0.000710465)
(0.038634 0 0.000717455)
(0.0371255 0 0.000724104)
(0.0356051 0 0.000730413)
(0.0340733 0 0.00073638)
(0.032531 0 0.000742006)
(0.0309789 0 0.000747291)
(0.0294177 0 0.000752234)
(0.0278481 0 0.000756838)
(0.0262708 0 0.000761101)
(0.0246867 0 0.000765026)
(0.0230963 0 0.000768612)
(0.0215005 0 0.000771862)
(0.0198998 0 0.000774777)
(0.0182951 0 0.000777358)
(0.016687 0 0.000779606)
(0.0150763 0 0.000781525)
(0.0134635 0 0.000783115)
(0.0118494 0 0.000784379)
(0.0102346 0 0.000785319)
(0.00861988 0 0.000785938)
(0.00700581 0 0.000786239)
(0.00539306 0 0.000786223)
(0.00378229 0 0.000785894)
(0.00217412 0 0.000785255)
(0.00056918 0 0.000784308)
(-0.00103191 0 0.000783058)
(-0.00262853 0 0.000781506)
(-0.00422009 0 0.000779658)
(-0.00580599 0 0.000777515)
(-0.00738564 0 0.000775082)
(-0.00895848 0 0.000772362)
(-0.0105239 0 0.000769359)
(-0.0120814 0 0.000766077)
(-0.0136304 0 0.000762519)
(-0.0151704 0 0.00075869)
(-0.0167009 0 0.000754593)
(-0.0182212 0 0.000750233)
(-0.019731 0 0.000745613)
(-0.0212296 0 0.000740738)
(-0.0227167 0 0.000735611)
(-0.0241918 0 0.000730238)
(-0.0256543 0 0.000724622)
(-0.0271039 0 0.000718768)
(-0.02854 0 0.00071268)
(-0.0299622 0 0.000706361)
(-0.0313701 0 0.000699818)
(-0.0327633 0 0.000693053)
(-0.0341414 0 0.000686071)
(-0.0355039 0 0.000678877)
(-0.0368506 0 0.000671476)
(-0.0381809 0 0.00066387)
(-0.0394946 0 0.000656066)
(-0.0407912 0 0.000648066)
(-0.0420704 0 0.000639876)
(-0.043332 0 0.000631501)
(-0.0445754 0 0.000622943)
(-0.0458006 0 0.000614208)
(-0.047007 0 0.0006053)
(-0.0481944 0 0.000596224)
(-0.0493626 0 0.000586983)
(-0.0505112 0 0.000577582)
(-0.05164 0 0.000568025)
(-0.0527487 0 0.000558317)
(-0.0538371 0 0.000548461)
(-0.0549048 0 0.000538462)
(-0.0559517 0 0.000528323)
(-0.0569776 0 0.00051805)
(-0.0579822 0 0.000507646)
(-0.0589653 0 0.000497115)
(-0.0599267 0 0.000486461)
(-0.0608662 0 0.000475689)
(-0.0617836 0 0.000464801)
(-0.0626788 0 0.000453802)
(-0.0635516 0 0.000442697)
(-0.0644018 0 0.000431488)
(-0.0652293 0 0.00042018)
(-0.0660339 0 0.000408776)
(-0.0668155 0 0.00039728)
(-0.0675739 0 0.000385695)
(-0.0683091 0 0.000374027)
(-0.0690209 0 0.000362277)
(-0.0697093 0 0.00035045)
(-0.070374 0 0.000338549)
(-0.0710151 0 0.000326577)
(-0.0716324 0 0.000314539)
(-0.0722259 0 0.000302437)
(-0.0727955 0 0.000290276)
(-0.073341 0 0.000278057)
(-0.0738626 0 0.000265785)
(-0.0743601 0 0.000253463)
(-0.0748334 0 0.000241095)
(-0.0752826 0 0.000228683)
(-0.0757076 0 0.00021623)
(-0.0761083 0 0.00020374)
(-0.0764848 0 0.000191216)
(-0.0768371 0 0.000178661)
(-0.077165 0 0.000166078)
(-0.0774687 0 0.000153471)
(-0.0777482 0 0.000140841)
(-0.0780034 0 0.000128192)
(-0.0782343 0 0.000115528)
(-0.078441 0 0.000102851)
(-0.0786235 0 9.01631e-05)
(-0.0787819 0 7.74684e-05)
(-0.0789161 0 6.47694e-05)
(-0.0790263 0 5.20688e-05)
(-0.0791124 0 3.93696e-05)
(-0.0791746 0 2.66745e-05)
(-0.0792128 0 1.39863e-05)
(-0.0792272 0 1.3078e-06)
(-0.0792177 0 -1.13583e-05)
(-0.0791846 0 -2.40093e-05)
(-0.0791278 0 -3.66424e-05)
(-0.0790475 0 -4.9255e-05)
(-0.0789436 0 -6.18444e-05)
(-0.0788165 0 -7.44078e-05)
(-0.078666 0 -8.69427e-05)
(-0.0784924 0 -9.94464e-05)
(-0.0782957 0 -0.000111916)
(-0.078076 0 -0.00012435)
(-0.0778335 0 -0.000136744)
(-0.0775683 0 -0.000149097)
(-0.0772805 0 -0.000161405)
(-0.0769702 0 -0.000173667)
(-0.0766376 0 -0.000185879)
(-0.0762828 0 -0.000198039)
(-0.075906 0 -0.000210144)
(-0.0755073 0 -0.000222192)
(-0.0750868 0 -0.000234181)
(-0.0746447 0 -0.000246107)
(-0.0741812 0 -0.000257968)
(-0.0736964 0 -0.000269762)
(-0.0731906 0 -0.000281486)
(-0.0726638 0 -0.000293138)
(0.00657547 0 -0.00235075)
(0.0094561 0 -0.00234894)
(0.0123298 0 -0.0023441)
(0.0151928 0 -0.00233622)
(0.0180415 0 -0.00232528)
(0.0208721 0 -0.00231128)
(0.0236809 0 -0.00229422)
(0.0264643 0 -0.00227409)
(0.0292186 0 -0.00225092)
(0.03194 0 -0.0022247)
(0.0346251 0 -0.00219547)
(0.0372702 0 -0.00216324)
(0.0398718 0 -0.00212804)
(0.0424264 0 -0.00208991)
(0.0449305 0 -0.00204888)
(0.0473808 0 -0.00200501)
(0.049774 0 -0.00195834)
(0.0521068 0 -0.00190892)
(0.0543761 0 -0.00185682)
(0.0565789 0 -0.00180211)
(0.0587121 0 -0.00174485)
(0.0607729 0 -0.00168512)
(0.0627585 0 -0.001623)
(0.0646662 0 -0.00155857)
(0.0664936 0 -0.00149193)
(0.068238 0 -0.00142316)
(0.0698973 0 -0.00135238)
(0.0714692 0 -0.00127967)
(0.0729517 0 -0.00120514)
(0.0743429 0 -0.0011289)
(0.075641 0 -0.00105107)
(0.0768442 0 -0.000971752)
(0.0779512 0 -0.000891074)
(0.0789605 0 -0.000809152)
(0.079871 0 -0.000726109)
(0.0806816 0 -0.00064207)
(0.0813914 0 -0.00055716)
(0.0819997 0 -0.000471506)
(0.0825057 0 -0.000385238)
(0.0829092 0 -0.000298484)
(0.0832098 0 -0.000211375)
(0.0834073 0 -0.000124039)
(0.0835018 0 -3.66077e-05)
(0.0834935 0 5.07904e-05)
(0.0833826 0 0.000138026)
(0.0831697 0 0.000224972)
(0.0828553 0 0.000311501)
(0.0824403 0 0.000397487)
(0.0819255 0 0.000482809)
(0.081312 0 0.000567343)
(0.0806009 0 0.000650971)
(0.0797937 0 0.000733576)
(0.0788917 0 0.000815045)
(0.0778965 0 0.000895266)
(0.0768098 0 0.000974131)
(0.0756335 0 0.00105154)
(0.0743694 0 0.00112738)
(0.0730197 0 0.00120156)
(0.0715864 0 0.001274)
(0.0700719 0 0.00134459)
(0.0684784 0 0.00141325)
(0.0668084 0 0.00147991)
(0.0650644 0 0.00154448)
(0.063249 0 0.0016069)
(0.0613649 0 0.00166709)
(0.0594147 0 0.00172499)
(0.0574014 0 0.00178055)
(0.0553276 0 0.00183371)
(0.0531965 0 0.00188442)
(0.0510108 0 0.00193264)
(0.0487736 0 0.00197832)
(0.0464879 0 0.00202144)
(0.0441568 0 0.00206196)
(0.0417833 0 0.00209985)
(0.0393705 0 0.0021351)
(0.0369215 0 0.00216769)
(0.0344394 0 0.0021976)
(0.0319274 0 0.00222483)
(0.0293885 0 0.00224938)
(0.0268258 0 0.00227124)
(0.0242425 0 0.00229042)
(0.0216416 0 0.00230692)
(0.0190261 0 0.00232077)
(0.0163992 0 0.00233197)
(0.0137637 0 0.00234054)
(0.0111227 0 0.00234651)
(0.00847908 0 0.00234989)
(0.00583573 0 0.00235073)
(0.00319551 0 0.00234905)
(0.000561231 0 0.00234488)
(-0.00206436 0 0.00233827)
(-0.00467855 0 0.00232924)
(-0.00727868 0 0.00231785)
(-0.00986216 0 0.00230413)
(-0.0124265 0 0.00228812)
(-0.0149691 0 0.00226989)
(-0.0174876 0 0.00224947)
(-0.0199797 0 0.00222691)
(-0.022443 0 0.00220227)
(-0.0248753 0 0.0021756)
(-0.0272745 0 0.00214695)
(-0.0296384 0 0.00211637)
(-0.031965 0 0.00208392)
(-0.0342524 0 0.00204965)
(-0.0364986 0 0.00201363)
(-0.0387018 0 0.0019759)
(-0.0408603 0 0.00193653)
(-0.0429724 0 0.00189556)
(-0.0450363 0 0.00185306)
(-0.0470506 0 0.00180909)
(-0.0490138 0 0.00176369)
(-0.0509245 0 0.00171692)
(-0.0527812 0 0.00166885)
(-0.0545826 0 0.00161952)
(-0.0563277 0 0.001569)
(-0.058015 0 0.00151733)
(-0.0596437 0 0.00146457)
(-0.0612126 0 0.00141077)
(-0.0627207 0 0.00135599)
(-0.0641672 0 0.00130028)
(-0.0655511 0 0.00124369)
(-0.0668716 0 0.00118627)
(-0.0681281 0 0.00112808)
(-0.0693198 0 0.00106915)
(-0.0704461 0 0.00100954)
(-0.0715063 0 0.000949309)
(-0.0725001 0 0.000888489)
(-0.0734268 0 0.000827133)
(-0.0742862 0 0.000765287)
(-0.0750777 0 0.000702997)
(-0.0758012 0 0.000640307)
(-0.0764563 0 0.000577263)
(-0.0770427 0 0.000513907)
(-0.0775605 0 0.000450284)
(-0.0780093 0 0.000386436)
(-0.0783891 0 0.000322406)
(-0.0787 0 0.000258236)
(-0.0789418 0 0.000193966)
(-0.0791147 0 0.000129639)
(-0.0792187 0 6.52955e-05)
(-0.0792541 0 9.75154e-07)
(-0.0792209 0 -6.32814e-05)
(-0.0791194 0 -0.000127434)
(-0.0789499 0 -0.000191444)
(-0.0787126 0 -0.00025527)
(-0.078408 0 -0.000318874)
(-0.0780365 0 -0.000382216)
(-0.0775984 0 -0.000445256)
(-0.0770942 0 -0.000507957)
(-0.0765244 0 -0.000570278)
(-0.0758897 0 -0.00063218)
(-0.0751905 0 -0.000693625)
(-0.0744276 0 -0.000754573)
(-0.0736015 0 -0.000814984)
(-0.0727131 0 -0.000874819)
(-0.071763 0 -0.00093404)
(-0.070752 0 -0.000992605)
(-0.069681 0 -0.00105048)
(-0.0685509 0 -0.00110761)
(-0.0673625 0 -0.00116398)
(-0.0661169 0 -0.00121953)
(-0.0648149 0 -0.00127422)
(-0.0634576 0 -0.00132802)
(-0.0620461 0 -0.00138089)
(-0.0605814 0 -0.00143279)
(-0.0590648 0 -0.00148366)
(-0.0574974 0 -0.00153349)
(-0.0558804 0 -0.00158222)
(-0.0542151 0 -0.00162981)
(-0.0525028 0 -0.00167623)
(-0.0507447 0 -0.00172144)
(-0.0489423 0 -0.00176539)
(-0.047097 0 -0.00180804)
(-0.0452102 0 -0.00184936)
(-0.0432835 0 -0.00188932)
(-0.0413182 0 -0.00192786)
(-0.039316 0 -0.00196495)
(-0.0372784 0 -0.00200055)
(-0.0352071 0 -0.00203464)
(-0.0331037 0 -0.00206716)
(-0.0309699 0 -0.00209809)
(-0.0288074 0 -0.00212739)
(-0.026618 0 -0.00215502)
(-0.0244034 0 -0.00218096)
(-0.0221654 0 -0.00220517)
(-0.0199059 0 -0.00222762)
(-0.0176266 0 -0.00224827)
(-0.0153296 0 -0.00226711)
(-0.0130166 0 -0.0022841)
(-0.0106896 0 -0.00229922)
(-0.00835063 0 -0.00231244)
(-0.00600152 0 -0.00232374)
(-0.0036443 0 -0.0023331)
(-0.00128097 0 -0.0023405)
(0.00108648 0 -0.00234591)
(0.00345602 0 -0.00234933)
(0.00582563 0 -0.00235073)
(0.00819326 0 -0.00235011)
(0.0105569 0 -0.00234745)
(0.0129144 0 -0.00234274)
(0.0152639 0 -0.00233598)
(0.0176032 0 -0.00232717)
(0.0199302 0 -0.00231629)
(0.0222431 0 -0.00230335)
(0.0245396 0 -0.00228835)
(0.0268179 0 -0.0022713)
(0.0290758 0 -0.0022522)
(0.0313114 0 -0.00223106)
(0.0335227 0 -0.00220789)
(0.0357077 0 -0.0021827)
(0.0378645 0 -0.00215551)
(0.0399912 0 -0.00212634)
(0.0420858 0 -0.0020952)
(0.0441465 0 -0.00206213)
(0.0461714 0 -0.00202714)
(0.0481588 0 -0.00199026)
(0.0501068 0 -0.00195153)
(0.0520137 0 -0.00191097)
(0.0538778 0 -0.00186862)
(0.0556974 0 -0.00182452)
(0.057471 0 -0.0017787)
(0.0591969 0 -0.0017312)
(0.0608736 0 -0.00168208)
(0.0624997 0 -0.00163137)
(0.0640736 0 -0.00157911)
(0.0655941 0 -0.00152537)
(0.0670598 0 -0.00147019)
(0.0684693 0 -0.00141363)
(0.0698216 0 -0.00135573)
(0.0711154 0 -0.00129656)
(0.0723497 0 -0.00123617)
(0.0735233 0 -0.00117462)
(0.0746354 0 -0.00111198)
(0.075685 0 -0.00104829)
(0.0766712 0 -0.000983642)
(0.0775934 0 -0.000918082)
(0.0784507 0 -0.00085168)
(0.0792424 0 -0.000784502)
(0.0799681 0 -0.000716615)
(0.0806272 0 -0.000648089)
(0.0812192 0 -0.00057899)
(0.0817438 0 -0.000509389)
(0.0822006 0 -0.000439355)
(0.0825895 0 -0.000368957)
(0.0829101 0 -0.000298267)
(0.0831624 0 -0.000227355)
(0.0833464 0 -0.000156289)
(0.0834621 0 -8.51423e-05)
(0.0835095 0 -1.39829e-05)
(0.0834889 0 5.71189e-05)
(0.0834004 0 0.000128094)
(0.0832444 0 0.000198873)
(0.0830212 0 0.000269389)
(0.0827312 0 0.000339573)
(0.0823749 0 0.000409358)
(0.0819528 0 0.00047868)
(0.0814656 0 0.000547473)
(0.0809139 0 0.000615674)
(0.0802984 0 0.000683218)
(0.0796199 0 0.000750046)
(0.0788793 0 0.000816097)
(0.0780774 0 0.000881312)
(0.0772152 0 0.000945633)
(0.0762936 0 0.00100901)
(0.0753138 0 0.00107137)
(0.0742767 0 0.00113269)
(0.0731835 0 0.00119289)
(0.0720355 0 0.00125194)
(0.0708337 0 0.00130978)
(0.0695795 0 0.00136638)
(0.0682742 0 0.00142168)
(0.0669191 0 0.00147564)
(0.0655156 0 0.00152823)
(0.0640651 0 0.00157941)
(0.0625689 0 0.00162914)
(0.0610286 0 0.00167738)
(0.0594457 0 0.00172411)
(0.0578216 0 0.00176929)
(0.0561579 0 0.0018129)
(0.0544562 0 0.00185491)
(0.0527179 0 0.00189529)
(0.0509448 0 0.00193404)
(0.0491384 0 0.00197111)
(0.0473003 0 0.00200651)
(0.0454321 0 0.00204021)
(0.0435356 0 0.00207219)
(0.0416122 0 0.00210246)
(0.0396638 0 0.00213099)
(0.0376918 0 0.00215777)
(0.035698 0 0.00218282)
(0.0336841 0 0.00220611)
(0.0316516 0 0.00222764)
(0.0296022 0 0.00224742)
(0.0275376 0 0.00226545)
(0.0254594 0 0.00228173)
(0.0233692 0 0.00229627)
(0.0212686 0 0.00230906)
(0.0191593 0 0.00232013)
(0.0170428 0 0.00232947)
(0.0149207 0 0.0023371)
(0.0127946 0 0.00234303)
(0.010666 0 0.00234727)
(0.00853643 0 0.00234985)
(0.00640743 0 0.00235076)
(0.00428047 0 0.00235004)
(0.00215704 0 0.0023477)
(3.85693e-05 0 0.00234376)
(-0.0020735 0 0.00233824)
(-0.00417777 0 0.00233116)
(-0.00627286 0 0.00232254)
(-0.00835742 0 0.00231241)
(-0.0104301 0 0.00230079)
(-0.0124896 0 0.0022877)
(-0.0145347 0 0.00227317)
(-0.0165641 0 0.00225723)
(-0.0185765 0 0.0022399)
(-0.0205708 0 0.00222121)
(-0.0225458 0 0.00220119)
(-0.0245004 0 0.00217986)
(-0.0264335 0 0.00215726)
(-0.0283439 0 0.00213341)
(-0.0302307 0 0.00210833)
(-0.0320927 0 0.00208207)
(-0.033929 0 0.00205464)
(-0.0357387 0 0.00202609)
(-0.0375208 0 0.00199643)
(-0.0392743 0 0.0019657)
(-0.0409985 0 0.00193392)
(-0.0426924 0 0.00190114)
(-0.0443552 0 0.00186737)
(-0.0459862 0 0.00183264)
(-0.0475845 0 0.00179699)
(-0.0491495 0 0.00176045)
(-0.0506804 0 0.00172304)
(-0.0521766 0 0.0016848)
(-0.0536374 0 0.00164575)
(-0.0550621 0 0.00160592)
(-0.0564502 0 0.00156534)
(-0.0578011 0 0.00152404)
(-0.0591143 0 0.00148205)
(-0.0603892 0 0.00143939)
(-0.0616254 0 0.00139609)
(-0.0628223 0 0.00135218)
(-0.0639796 0 0.00130769)
(-0.0650968 0 0.00126265)
(-0.0661736 0 0.00121707)
(-0.0672095 0 0.00117099)
(-0.0682042 0 0.00112443)
(-0.0691574 0 0.00107742)
(-0.0700688 0 0.00102998)
(-0.0709381 0 0.000982134)
(-0.0717651 0 0.000933913)
(-0.0725495 0 0.000885339)
(-0.0732911 0 0.000836435)
(-0.0739898 0 0.000787225)
(-0.0746454 0 0.000737732)
(-0.0752576 0 0.00068798)
(-0.0758265 0 0.000637991)
(-0.0763519 0 0.000587789)
(-0.0768336 0 0.000537394)
(-0.0772717 0 0.000486831)
(-0.0776661 0 0.000436119)
(-0.0780167 0 0.000385282)
(-0.0783236 0 0.00033434)
(-0.0785868 0 0.000283314)
(-0.0788062 0 0.000232227)
(-0.0789819 0 0.000181098)
(-0.079114 0 0.000129948)
(-0.0792026 0 7.87976e-05)
(-0.0792477 0 2.76674e-05)
(-0.0792495 0 -2.34225e-05)
(-0.0792081 0 -7.44521e-05)
(-0.0791237 0 -0.000125401)
(-0.0789963 0 -0.00017625)
(-0.0788262 0 -0.000226979)
(-0.0786136 0 -0.000277569)
(-0.0783587 0 -0.000327999)
(-0.0780617 0 -0.00037825)
(-0.0777229 0 -0.000428303)
(-0.0773425 0 -0.000478138)
(-0.0769208 0 -0.000527735)
(-0.0764581 0 -0.000577077)
(-0.0759546 0 -0.000626142)
(-0.0754108 0 -0.000674912)
(-0.0748269 0 -0.000723367)
(-0.0742033 0 -0.000771488)
(-0.0735404 0 -0.000819256)
(-0.0728385 0 -0.000866651)
(-0.0720981 0 -0.000913654)
(-0.0713195 0 -0.000960245)
(-0.0705032 0 -0.00100641)
(-0.0696496 0 -0.00105212)
(-0.0687592 0 -0.00109736)
(-0.0678325 0 -0.00114211)
(-0.0668698 0 -0.00118635)
(-0.0658718 0 -0.00123007)
(-0.064839 0 -0.00127324)
(-0.0637718 0 -0.00131584)
(-0.0626709 0 -0.00135785)
(-0.0615368 0 -0.00139926)
(-0.06037 0 -0.00144005)
(-0.0591711 0 -0.00148019)
(-0.0579408 0 -0.00151966)
(-0.0566797 0 -0.00155846)
(-0.0553883 0 -0.00159655)