/*--------------------------------*- C++ -*----------------------------------*\
| =========                 |                                                 |
| \\      /  F ield         | foam-extend: Open Source CFD                    |
|  \\    /   O peration     | Version:     4.0                                |
|   \\  /    A nd           | Web:         http://www.foam-extend.org         |
|    \\/     M anipulation  |                                                 |
\*---------------------------------------------------------------------------*/
FoamFile
{
    version     2.0;
    format      ascii;
    class       volVectorField;
    location    "0";
    object      U;
}
// * * * * * * * * * * * * * * * * * * * * * * * * * * * * * * * * * * * * * //

dimensions      [0 1 -1 0 0 0 0];

internalField   nonuniform List<vector> 
72920
(
(0.00708131 0 -0.000786232)
(0.0109724 0 -0.00078493)
(0.0148524 0 -0.000781765)
(0.0187121 0 -0.00077672)
(0.0225421 0 -0.00076978)
(0.0263331 0 -0.00076094)
(0.0300755 0 -0.000750196)
(0.0337601 0 -0.000737553)
(0.0373774 0 -0.000723022)
(0.040918 0 -0.000706617)
(0.0443729 0 -0.000688364)
(0.0477328 0 -0.00066829)
(0.0509889 0 -0.000646431)
(0.0541324 0 -0.000622829)
(0.0571548 0 -0.000597534)
(0.0600479 0 -0.000570601)
(0.0628036 0 -0.00054209)
(0.0654144 0 -0.000512071)
(0.067873 0 -0.000480615)
(0.0701723 0 -0.000447804)
(0.0723061 0 -0.000413722)
(0.074268 0 -0.00037846)
(0.0760527 0 -0.000342113)
(0.0776548 0 -0.00030478)
(0.0790699 0 -0.000266566)
(0.0802937 0 -0.000227578)
(0.0813228 0 -0.000187929)
(0.0821541 0 -0.000147731)
(0.0827852 0 -0.000107101)
(0.0832144 0 -6.61577e-05)
(0.0834402 0 -2.50205e-05)
(0.083462 0 1.61899e-05)
(0.0832799 0 5.7353e-05)
(0.0828943 0 9.83479e-05)
(0.0823063 0 0.000139055)
(0.0815177 0 0.000179355)
(0.0805308 0 0.000219132)
(0.0793484 0 0.000258271)
(0.077974 0 0.00029666)
(0.0764116 0 0.00033419)
(0.0746657 0 0.000370758)
(0.0727412 0 0.000406261)
(0.0706438 0 0.000440604)
(0.0683794 0 0.000473694)
(0.0659544 0 0.000505447)
(0.0633756 0 0.000535781)
(0.0606503 0 0.000564621)
(0.057786 0 0.000591898)
(0.0547907 0 0.000617549)
(0.0516724 0 0.000641517)
(0.0484397 0 0.000663753)
(0.0451013 0 0.000684213)
(0.0416661 0 0.00070286)
(0.038143 0 0.000719663)
(0.0345414 0 0.000734597)
(0.0308705 0 0.000747646)
(0.0271396 0 0.000758797)
(0.0233582 0 0.000768046)
(0.0195358 0 0.000775392)
(0.0156817 0 0.000780843)
(0.0118052 0 0.000784409)
(0.00791575 0 0.000786108)
(0.00402244 0 0.000785963)
(0.000134362 0 0.000783999)
(-0.00373955 0 0.000780248)
(-0.00759052 0 0.000774744)
(-0.01141 0 0.000767528)
(-0.0151896 0 0.00075864)
(-0.0189211 0 0.000748127)
(-0.0225966 0 0.000736036)
(-0.0262084 0 0.000722419)
(-0.0297491 0 0.000707326)
(-0.0332116 0 0.000690814)
(-0.0365889 0 0.000672937)
(-0.0398744 0 0.000653753)
(-0.0430617 0 0.00063332)
(-0.0461449 0 0.000611697)
(-0.0491182 0 0.000588942)
(-0.0519762 0 0.000565116)
(-0.0547136 0 0.000540277)
(-0.0573256 0 0.000514485)
(-0.0598077 0 0.0004878)
(-0.0621555 0 0.000460279)
(-0.0643651 0 0.000431981)
(-0.0664327 0 0.000402963)
(-0.068355 0 0.000373283)
(-0.0701288 0 0.000342997)
(-0.0717512 0 0.00031216)
(-0.0732196 0 0.000280828)
(-0.0745318 0 0.000249053)
(-0.0756857 0 0.00021689)
(-0.0766794 0 0.000184392)
(-0.0775114 0 0.00015161)
(-0.0781806 0 0.000118597)
(-0.0786858 0 8.54033e-05)
(-0.0790262 0 5.20804e-05)
(-0.0792014 0 1.86787e-05)
(-0.0792112 0 -1.47511e-05)
(-0.0790554 0 -4.81587e-05)
(-0.0787343 0 -8.14935e-05)
(-0.0782485 0 -0.000114705)
(-0.0775985 0 -0.000147742)
(-0.0767856 0 -0.000180554)
(-0.0758108 0 -0.000213088)
(-0.0746757 0 -0.000245293)
(-0.073382 0 -0.000277116)
(-0.0719318 0 -0.000308503)
(-0.0703273 0 -0.000339401)
(-0.0685712 0 -0.000369755)
(-0.0666662 0 -0.000399509)
(-0.0646155 0 -0.000428607)
(-0.0624224 0 -0.000456993)
(-0.0600906 0 -0.000484608)
(-0.0576241 0 -0.000511395)
(-0.0550271 0 -0.000537295)
(-0.0523042 0 -0.000562249)
(-0.0494601 0 -0.000586197)
(-0.0465001 0 -0.000609081)
(-0.0434295 0 -0.00063084)
(-0.0402541 0 -0.000651416)
(-0.0369798 0 -0.00067075)
(-0.033613 0 -0.000688783)
(-0.0301602 0 -0.000705459)
(-0.0266283 0 -0.000720721)
(-0.0230244 0 -0.000734515)
(-0.019356 0 -0.000746787)
(-0.0156307 0 -0.000757488)
(-0.0118563 0 -0.000766569)
(-0.00804112 0 -0.000773985)
(-0.00419341 0 -0.000779691)
(-0.000321742 0 -0.00078365)
(0.00356513 0 -0.000785826)
(0.00745829 0 -0.000786187)
(0.0113487 0 -0.000784705)
(0.0152272 0 -0.000781359)
(0.0190844 0 -0.000776131)
(0.022911 0 -0.000769008)
(0.0266977 0 -0.000759983)
(0.030435 0 -0.000749055)
(0.0341134 0 -0.000736229)
(0.0377237 0 -0.000721515)
(0.0412565 0 -0.00070493)
(0.0447025 0 -0.000686499)
(0.0480528 0 -0.00066625)
(0.0512983 0 -0.000644221)
(0.0544305 0 -0.000620453)
(0.0574407 0 -0.000594997)
(0.0603208 0 -0.000567908)
(0.0630629 0 -0.000539248)
(0.0656592 0 -0.000509086)
(0.0681027 0 -0.000477496)
(0.0703863 0 -0.000444558)
(0.0725036 0 -0.000410358)
(0.0744487 0 -0.000374987)
(0.0762159 0 -0.000338539)
(0.0778001 0 -0.000301116)
(0.0791968 0 -0.000262823)
(0.0804019 0 -0.000223766)
(0.081412 0 -0.000184058)
(0.082224 0 -0.000143814)
(0.0828357 0 -0.000103148)
(0.0832451 0 -6.21811e-05)
(0.0834512 0 -2.10316e-05)
(0.0834533 0 2.01796e-05)
(0.0832514 0 6.13316e-05)
(0.0828462 0 0.000102304)
(0.0822387 0 0.000142977)
(0.0814308 0 0.000183231)
(0.0804248 0 0.000222951)
(0.0792237 0 0.000262023)
(0.0778309 0 0.000300333)
(0.0762505 0 0.000337775)
(0.074487 0 0.000374243)
(0.0725456 0 0.000409638)
(0.0704318 0 0.000443864)
(0.0681515 0 0.000476829)
(0.0657113 0 0.000508447)
(0.063118 0 0.00053864)
(0.0603789 0 0.000567331)
(0.0575016 0 0.000594453)
(0.054494 0 0.000619944)
(0.0513643 0 0.000643747)
(0.048121 0 0.000665813)
(0.0447728 0 0.000686099)
(0.0413286 0 0.000704568)
(0.0377976 0 0.000721191)
(0.0341888 0 0.000735943)
(0.0305117 0 0.000748809)
(0.0267755 0 0.000759776)
(0.0229898 0 0.00076884)
(0.0191639 0 0.000776003)
(0.0153072 0 0.00078127)
(0.011429 0 0.000784655)
(0.00753879 0 0.000786175)
(0.00364559 0 0.000785852)
(-0.000241496 0 0.000783713)
(-0.00411356 0 0.000779791)
(-0.00796186 0 0.00077412)
(-0.0117778 0 0.00076674)
(-0.0155531 0 0.000757693)
(-0.0192795 0 0.000747025)
(-0.0229492 0 0.000734784)
(-0.0265545 0 0.000721021)
(-0.0300879 0 0.000705789)
(-0.0335424 0 0.000689142)
(-0.0369111 0 0.000671136)
(-0.0401874 0 0.000651829)
(-0.0433649 0 0.000631278)
(-0.0464377 0 0.000609542)
(-0.0494001 0 0.000586681)
(-0.0522466 0 0.000562754)
(-0.0549721 0 0.000537821)
(-0.0575717 0 0.00051194)
(-0.0600409 0 0.000485171)
(-0.0623755 0 0.000457572)
(-0.0645715 0 0.000429202)
(-0.0666253 0 0.000400118)
(-0.0685333 0 0.000370377)
(-0.0702925 0 0.000340035)
(-0.0719001 0 0.000309147)
(-0.0733536 0 0.000277769)
(-0.0746505 0 0.000245955)
(-0.0757889 0 0.000213757)
(-0.076767 0 0.000181229)
(-0.0775834 0 0.000148423)
(-0.0782367 0 0.00011539)
(-0.0787259 0 8.21816e-05)
(-0.0790504 0 4.88489e-05)
(-0.0792096 0 1.54423e-05)
(-0.0792033 0 -1.79876e-05)
(-0.0790315 0 -5.13904e-05)
(-0.0786945 0 -8.47154e-05)
(-0.0781927 0 -0.000117912)
(-0.0775269 0 -0.00015093)
(-0.0766982 0 -0.000183717)
(-0.0757078 0 -0.000216221)
(-0.0745573 0 -0.000248392)
(-0.0732484 0 -0.000280175)
(-0.0717831 0 -0.000311517)
(-0.0701639 0 -0.000342365)
(-0.0683932 0 -0.000372663)
(-0.0664739 0 -0.000402356)
(-0.0644093 0 -0.000431388)
(-0.0622026 0 -0.000459701)
(-0.0598576 0 -0.000487239)
(-0.0573783 0 -0.000513943)
(-0.0547689 0 -0.000539753)
(-0.052034 0 -0.000564612)
(-0.0491785 0 -0.00058846)
(-0.0462075 0 -0.000611238)
(-0.0431266 0 -0.000632885)
(-0.0399413 0 -0.000653343)
(-0.0366578 0 -0.000672554)
(-0.0332823 0 -0.000690458)
(-0.0298216 0 -0.000706999)
(-0.0262824 0 -0.000722121)
(-0.0226719 0 -0.00073577)
(-0.0189977 0 -0.000747893)
(-0.0152672 0 -0.000758439)
(-0.0114886 0 -0.000767361)
(-0.00766985 0 -0.000774612)
(-0.00381944 0 -0.000780152)
(5.40861e-05 0 -0.000783939)
(0.00394196 0 -0.000785941)
(0.00783525 0 -0.000786124)
(0.0117249 0 -0.000784463)
(0.0156017 0 -0.000780935)
(0.0194564 0 -0.000775524)
(0.0232796 0 -0.000768217)
(0.0270619 0 -0.000759008)
(0.0307939 0 -0.000747896)
(0.0344661 0 -0.000734886)
(0.0380693 0 -0.00071999)
(0.0415941 0 -0.000703226)
(0.0450312 0 -0.000684617)
(0.0483717 0 -0.000664195)
(0.0516067 0 -0.000641995)
(0.0547274 0 -0.000618061)
(0.0577254 0 -0.000592445)
(0.0605925 0 -0.000565201)
(0.0633207 0 -0.000536393)
(0.0659026 0 -0.000506089)
(0.0683309 0 -0.000474365)
(0.0705987 0 -0.000441301)
(0.0726996 0 -0.000406983)
(0.0746277 0 -0.000371503)
(0.0763773 0 -0.000334957)
(0.0779436 0 -0.000297445)
(0.0793219 0 -0.000259073)
(0.0805083 0 -0.000219948)
(0.0814993 0 -0.000180183)
(0.082292 0 -0.000139893)
(0.0828842 0 -9.91929e-05)
(0.083274 0 -5.82027e-05)
(0.0834603 0 -1.7042e-05)
(0.0834427 0 2.41687e-05)
(0.0832211 0 6.53086e-05)
(0.0827962 0 0.000106257)
(0.0821692 0 0.000146895)
(0.081342 0 0.000187103)
(0.080317 0 0.000226765)
(0.0790971 0 0.000265767)
(0.077686 0 0.000303998)
(0.0760877 0 0.00034135)
(0.0743068 0 0.000377719)
(0.0723484 0 0.000413005)
(0.0702182 0 0.000447112)
(0.0679221 0 0.00047995)
(0.0654668 0 0.000511434)
(0.0628591 0 0.000541485)
(0.0601063 0 0.000570027)
(0.057216 0 0.000596994)
(0.0541961 0 0.000622323)
(0.0510551 0 0.00064596)
(0.0478012 0 0.000667855)
(0.0444433 0 0.000687967)
(0.0409904 0 0.000706259)
(0.0374514 0 0.000722701)
(0.0338356 0 0.000737272)
(0.0301524 0 0.000749954)
(0.026411 0 0.000760737)
(0.0226209 0 0.000769617)
(0.0187916 0 0.000776595)
(0.0149324 0 0.00078168)
(0.0110527 0 0.000784883)
(0.00716181 0 0.000786224)
(0.00326881 0 0.000785724)
(-0.000617212 0 0.000783411)
(-0.00448736 0 0.000779318)
(-0.0083329 0 0.000773479)
(-0.0121453 0 0.000765936)
(-0.0159162 0 0.00075673)
(-0.0196375 0 0.000745907)
(-0.0233012 0 0.000733517)
(-0.0268999 0 0.000719609)
(-0.030426 0 0.000704238)
(-0.0338725 0 0.000687457)
(-0.0372325 0 0.000669322)
(-0.0404995 0 0.000649892)
(-0.0436671 0 0.000629224)
(-0.0467295 0 0.000607377)
(-0.0496808 0 0.00058441)
(-0.0525158 0 0.000560383)
(-0.0552293 0 0.000535355)
(-0.0578165 0 0.000509386)
(-0.0602729 0 0.000482534)
(-0.0625943 0 0.000454858)
(-0.0647767 0 0.000426416)
(-0.0668164 0 0.000397266)
(-0.0687102 0 0.000367464)
(-0.0704549 0 0.000337067)
(-0.0720477 0 0.00030613)
(-0.073486 0 0.000274707)
(-0.0747677 0 0.000242853)
(-0.0758907 0 0.000210621)
(-0.0768532 0 0.000178064)
(-0.0776538 0 0.000145234)
(-0.0782912 0 0.000112181)
(-0.0787646 0 7.89588e-05)
(-0.0790731 0 4.56166e-05)
(-0.0792162 0 1.22056e-05)
(-0.0791939 0 -2.12239e-05)
(-0.0790061 0 -5.46213e-05)
(-0.0786531 0 -8.79362e-05)
(-0.0781354 0 -0.000121118)
(-0.0774538 0 -0.000154115)
(-0.0766094 0 -0.000186877)
(-0.0756034 0 -0.000219352)
(-0.0744375 0 -0.000251487)
(-0.0731133 0 -0.00028323)
(0.00708161 0 -0.00235065)
(0.0109742 0 -0.00234676)
(0.0148557 0 -0.00233731)
(0.0187169 0 -0.00232223)
(0.0225484 0 -0.00230148)
(0.0263409 0 -0.00227505)
(0.0300849 0 -0.00224294)
(0.033771 0 -0.00220514)
(0.0373898 0 -0.0021617)
(0.0409319 0 -0.00211266)
(0.0443882 0 -0.00205808)
(0.0477496 0 -0.00199807)
(0.0510071 0 -0.00193272)
(0.054152 0 -0.00186215)
(0.0571757 0 -0.00178653)
(0.0600701 0 -0.001706)
(0.0628271 0 -0.00162076)
(0.0654391 0 -0.00153101)
(0.0678987 0 -0.00143697)
(0.0701992 0 -0.00133887)
(0.0723339 0 -0.00123697)
(0.0742968 0 -0.00113154)
(0.0760822 0 -0.00102287)
(0.0776851 0 -0.000911249)
(0.0791008 0 -0.000796994)
(0.0803252 0 -0.000680428)
(0.0813548 0 -0.000561881)
(0.0821865 0 -0.000441695)
(0.0828179 0 -0.000320217)
(0.0832473 0 -0.000197803)
(0.0834732 0 -7.48081e-05)
(0.0834951 0 4.84058e-05)
(0.0833128 0 0.000171478)
(0.082927 0 0.000294047)
(0.0823388 0 0.000415755)
(0.0815498 0 0.000536248)
(0.0805624 0 0.000655175)
(0.0793795 0 0.000772194)
(0.0780044 0 0.000886971)
(0.0764413 0 0.000999182)
(0.0746946 0 0.00110851)
(0.0727692 0 0.00121466)
(0.0706709 0 0.00131734)
(0.0684054 0 0.00141627)
(0.0659793 0 0.00151121)
(0.0633994 0 0.0016019)
(0.0606728 0 0.00168813)
(0.0578072 0 0.00176968)
(0.0548106 0 0.00184637)
(0.0516909 0 0.00191803)
(0.0484568 0 0.00198451)
(0.045117 0 0.00204568)
(0.0416803 0 0.00210142)
(0.0381557 0 0.00215166)
(0.0345526 0 0.0021963)
(0.0308802 0 0.00223531)
(0.0271478 0 0.00226865)
(0.0233649 0 0.0022963)
(0.0195409 0 0.00231826)
(0.0156853 0 0.00233455)
(0.0118073 0 0.00234521)
(0.00791637 0 0.00235028)
(0.00402159 0 0.00234985)
(0.000132067 0 0.00234397)
(-0.00374326 0 0.00233275)
(-0.00759562 0 0.00231629)
(-0.0114164 0 0.00229471)
(-0.0151973 0 0.00226814)
(-0.0189301 0 0.0022367)
(-0.0226069 0 0.00220055)
(-0.0262199 0 0.00215983)
(-0.0297618 0 0.00211471)
(-0.0332254 0 0.00206533)
(-0.0366037 0 0.00201188)
(-0.0398902 0 0.00195453)
(-0.0430786 0 0.00189344)
(-0.0461627 0 0.00182879)
(-0.0491369 0 0.00176075)
(-0.0519957 0 0.00168952)
(-0.0547339 0 0.00161525)
(-0.0573466 0 0.00153814)
(-0.0598294 0 0.00145836)
(-0.0621779 0 0.00137608)
(-0.064388 0 0.00129148)
(-0.0664562 0 0.00120472)
(-0.068379 0 0.00111599)
(-0.0701533 0 0.00102544)
(-0.0717761 0 0.00093325)
(-0.0732449 0 0.000839575)
(-0.0745575 0 0.00074458)
(-0.0757116 0 0.000648424)
(-0.0767056 0 0.000551265)
(-0.0775378 0 0.00045326)
(-0.0782071 0 0.000354562)
(-0.0787124 0 0.000255325)
(-0.079053 0 0.000155701)
(-0.0792282 0 5.58427e-05)
(-0.079238 0 -4.41004e-05)
(-0.0790821 0 -0.000143977)
(-0.078761 0 -0.000243636)
(-0.078275 0 -0.000342926)
(-0.0776249 0 -0.000441695)
(-0.0768118 0 -0.00053979)
(-0.0758367 0 -0.000637056)
(-0.0747013 0 -0.000733338)
(-0.0734073 0 -0.000828478)
(-0.0719567 0 -0.000922316)
(-0.0703519 0 -0.00101469)
(-0.0685953 0 -0.00110544)
(-0.0666898 0 -0.0011944)
(-0.0646385 0 -0.00128139)
(-0.0624448 0 -0.00136626)
(-0.0601124 0 -0.00144882)
(-0.0576452 0 -0.0015289)
(-0.0550475 0 -0.00160634)
(-0.0523238 0 -0.00168094)
(-0.0494789 0 -0.00175255)
(-0.046518 0 -0.00182096)
(-0.0434465 0 -0.00188602)
(-0.0402701 0 -0.00194754)
(-0.0369948 0 -0.00200534)
(-0.0336269 0 -0.00205926)
(-0.030173 0 -0.00210912)
(-0.0266399 0 -0.00215475)
(-0.0230349 0 -0.002196)
(-0.0193652 0 -0.00223269)
(-0.0156386 0 -0.00226469)
(-0.0118629 0 -0.00229185)
(-0.00804638 0 -0.00231402)
(-0.00419729 0 -0.00233109)
(-0.000324205 0 -0.00234293)
(0.00356411 0 -0.00234943)
(0.00745874 0 -0.00235052)
(0.0113506 0 -0.00234609)
(0.0152306 0 -0.00233609)
(0.0190893 0 -0.00232047)
(0.0229175 0 -0.00229917)
(0.0267057 0 -0.00227219)
(0.0304445 0 -0.00223953)
(0.0341245 0 -0.00220118)
(0.0377363 0 -0.00215719)
(0.0412705 0 -0.00210761)
(0.044718 0 -0.00205251)
(0.0480697 0 -0.00199197)
(0.0513167 0 -0.00192611)
(0.0544502 0 -0.00185505)
(0.0574618 0 -0.00177894)
(0.0603432 0 -0.00169795)
(0.0630864 0 -0.00161227)
(0.065684 0 -0.00152209)
(0.0681285 0 -0.00142764)
(0.0704132 0 -0.00132916)
(0.0725315 0 -0.00122691)
(0.0744775 0 -0.00112116)
(0.0762455 0 -0.00101218)
(0.0778304 0 -0.000900296)
(0.0792278 0 -0.000785804)
(0.0804335 0 -0.00066903)
(0.081444 0 -0.00055031)
(0.0822564 0 -0.000429983)
(0.0828684 0 -0.0003084)
(0.083278 0 -0.000185913)
(0.0834842 0 -6.28815e-05)
(0.0834863 0 6.03344e-05)
(0.0832844 0 0.000183373)
(0.0828789 0 0.000305875)
(0.0822711 0 0.000427481)
(0.0814628 0 0.000547837)
(0.0804564 0 0.000666594)
(0.0792547 0 0.000783411)
(0.0778612 0 0.000897954)
(0.0762801 0 0.0010099)
(0.0745159 0 0.00111893)
(0.0725735 0 0.00122476)
(0.0704587 0 0.00132709)
(0.0681774 0 0.00142565)
(0.0657361 0 0.00152018)
(0.0631417 0 0.00161045)
(0.0604013 0 0.00169623)
(0.0575227 0 0.00177732)
(0.0545137 0 0.00185353)
(0.0513827 0 0.00192469)
(0.0481379 0 0.00199066)
(0.0447883 0 0.00205131)
(0.0413427 0 0.00210653)
(0.0378101 0 0.00215622)
(0.0341999 0 0.00220033)
(0.0305212 0 0.00223879)
(0.0267836 0 0.00227158)
(0.0229963 0 0.00229867)
(0.0191688 0 0.00232008)
(0.0153106 0 0.00233583)
(0.011431 0 0.00234594)
(0.00753927 0 0.00235048)
(0.0036446 0 0.00234951)
(-0.000243929 0 0.00234311)
(-0.00411741 0 0.00233138)
(-0.0079671 0 0.00231442)
(-0.0117844 0 0.00229236)
(-0.015561 0 0.0022653)
(-0.0192887 0 0.0022334)
(-0.0229596 0 0.0021968)
(-0.0265661 0 0.00215565)
(-0.0301007 0 0.00211011)
(-0.0335563 0 0.00206033)
(-0.0369261 0 0.0020065)
(-0.0402033 0 0.00194877)
(-0.0433819 0 0.00188733)
(-0.0464556 0 0.00182234)
(-0.0494188 0 0.00175399)
(-0.0522662 0 0.00168246)
(-0.0549924 0 0.00160791)
(-0.0575928 0 0.00153053)
(-0.0600627 0 0.0014505)
(-0.062398 0 0.00136799)
(-0.0645946 0 0.00128317)
(-0.0666488 0 0.00119621)
(-0.0685574 0 0.0011073)
(-0.0703171 0 0.00101658)
(-0.0719251 0 0.000924242)
(-0.0733789 0 0.000830432)
(-0.0746762 0 0.000735318)
(-0.0758149 0 0.000639058)
(-0.0767932 0 0.00054181)
(-0.0776098 0 0.000443731)
(-0.0782632 0 0.000344974)
(-0.0787526 0 0.000245693)
(-0.0790772 0 0.00014604)
(-0.0792364 0 4.61668e-05)
(-0.0792301 0 -5.37764e-05)
(-0.0790583 0 -0.000153639)
(-0.0787211 0 -0.000253268)
(-0.0782192 0 -0.000352515)
(-0.0775533 0 -0.000451225)
(-0.0767244 0 -0.000549247)
(-0.0757338 0 -0.000646425)
(-0.0745829 0 -0.000742603)
(-0.0732737 0 -0.000837624)
(-0.071808 0 -0.000931327)
(-0.0701884 0 -0.00102355)
(-0.0684172 0 -0.00111413)
(-0.0664975 0 -0.00120291)
(-0.0644323 0 -0.0012897)
(-0.062225 0 -0.00137435)
(-0.0598793 0 -0.00145668)
(-0.0573993 0 -0.00153652)
(-0.0547892 0 -0.00161369)
(-0.0520535 0 -0.00168801)
(-0.0491972 0 -0.00175931)
(-0.0462254 0 -0.00182741)
(-0.0431434 0 -0.00189213)
(-0.0399572 0 -0.0019533)
(-0.0366726 0 -0.00201074)
(-0.0332961 0 -0.00206427)
(-0.0298343 0 -0.00211373)
(-0.0262939 0 -0.00215894)
(-0.0226823 0 -0.00219975)
(-0.0190067 0 -0.002236)
(-0.015275 0 -0.00226754)
(-0.0114951 0 -0.00229421)
(-0.00767498 0 -0.0023159)
(-0.00382318 0 -0.00233246)
(5.17614e-05 0 -0.00234379)
(0.00394108 0 -0.00234978)
(0.00783584 0 -0.00235033)
(0.011727 0 -0.00234537)
(0.0156053 0 -0.00233483)
(0.0194615 0 -0.00231865)
(0.0232862 0 -0.00229681)
(0.02707 0 -0.00226928)
(0.0308036 0 -0.00223606)
(0.0344773 0 -0.00219717)
(0.038082 0 -0.00215264)
(0.0416082 0 -0.00210252)
(0.0450469 0 -0.00204688)
(0.0483888 0 -0.00198583)
(0.0516252 0 -0.00191945)
(0.0547473 0 -0.0018479)
(0.0577466 0 -0.00177131)
(0.0606149 0 -0.00168986)
(0.0633444 0 -0.00160373)
(0.0659275 0 -0.00151313)
(0.0683568 0 -0.00141828)
(0.0706257 0 -0.00131942)
(0.0727276 0 -0.00121682)
(0.0746565 0 -0.00111074)
(0.076407 0 -0.00100147)
(0.077974 0 -0.000889319)
(0.079353 0 -0.000774591)
(0.0805399 0 -0.000657615)
(0.0815314 0 -0.000538724)
(0.0823245 0 -0.00041826)
(0.0829169 0 -0.000296573)
(0.0833069 0 -0.000174018)
(0.0834934 0 -5.09532e-05)
(0.0834757 0 7.22613e-05)
(0.083254 0 0.000195264)
(0.0828289 0 0.000317694)
(0.0822016 0 0.000439195)
(0.081374 0 0.000559411)
(0.0803485 0 0.000677995)
(0.0791281 0 0.000794606)
(0.0777163 0 0.000908912)
(0.0761172 0 0.00102059)
(0.0743355 0 0.00112933)
(0.0723762 0 0.00123482)
(0.070245 0 0.0013368)
(0.0679479 0 0.00143498)
(0.0654915 0 0.00152911)
(0.0628826 0 0.00161895)
(0.0601285 0 0.00170429)
(0.0572369 0 0.00178491)
(0.0542158 0 0.00186064)
(0.0510733 0 0.00193131)
(0.0478181 0 0.00199677)
(0.0444587 0 0.0020569)
(0.0410043 0 0.00211158)
(0.0374638 0 0.00216074)
(0.0338465 0 0.0022043)
(0.0301618 0 0.00224221)
(0.0264189 0 0.00227445)
(0.0226273 0 0.00230099)
(0.0187964 0 0.00232185)
(0.0149358 0 0.00233705)
(0.0110546 0 0.00234663)
(0.00716215 0 0.00235063)
(0.00326768 0 0.00234913)
(-0.000619784 0 0.00234221)
(-0.00449134 0 0.00232997)
(-0.00833826 0 0.00231251)
(-0.012152 0 0.00228995)
(-0.0159242 0 0.00226242)
(-0.0196468 0 0.00223006)
(-0.0233118 0 0.00219302)
(-0.0269116 0 0.00215143)
(-0.0304389 0 0.00210547)
(-0.0338865 0 0.0020553)
(-0.0372475 0 0.00200108)
(-0.0405155 0 0.00194298)
(-0.0436842 0 0.00188119)
(-0.0467474 0 0.00181587)
(-0.0496997 0 0.0017472)
(-0.0525355 0 0.00167537)
(-0.0552498 0 0.00160054)
(-0.0578377 0 0.0015229)
(-0.0602948 0 0.00144262)
(-0.0626168 0 0.00135987)
(-0.0647998 0 0.00127484)
(-0.06684 0 0.00118769)
(-0.0687343 0 0.00109859)
(-0.0704794 0 0.00100771)
(-0.0720727 0 0.00091522)
(-0.0735114 0 0.000821277)
(-0.0747934 0 0.000726045)
(-0.0759166 0 0.000629682)
(-0.0768794 0 0.000532347)
(-0.0776802 0 0.000434196)
(-0.0783178 0 0.000335382)
(-0.0787912 0 0.000236058)
(-0.0790998 0 0.000136377)
(-0.079243 0 3.64903e-05)
(-0.0792207 0 -6.34517e-05)
(-0.0790328 0 -0.000163298)
(-0.0786797 0 -0.000262897)
(-0.0781619 0 -0.000362098)
(-0.0774802 0 -0.000460749)
(-0.0766355 0 -0.000558696)
(-0.0756293 0 -0.000655783)
(-0.0744631 0 -0.000751857)
(-0.0731386 0 -0.000846757)
(0.0070822 0 -0.00389935)
(0.0109777 0 -0.00389291)
(0.0148622 0 -0.00387724)
(0.0187264 0 -0.00385224)
(0.0225609 0 -0.00381784)
(0.0263564 0 -0.00377401)
(0.0301034 0 -0.00372074)
(0.0337925 0 -0.00365806)
(0.0374142 0 -0.003586)
(0.0409593 0 -0.00350466)
(0.0444185 0 -0.00341414)
(0.0477827 0 -0.00331459)
(0.051043 0 -0.00320618)
(0.0541906 0 -0.00308914)
(0.057217 0 -0.00296369)
(0.0601139 0 -0.00283011)
(0.0628733 0 -0.00268871)
(0.0654876 0 -0.00253983)
(0.0679495 0 -0.00238382)
(0.070252 0 -0.00222108)
(0.0723887 0 -0.00205204)
(0.0743533 0 -0.00187715)
(0.0761404 0 -0.00169687)
(0.0777448 0 -0.0015117)
(0.0791618 0 -0.00132216)
(0.0803874 0 -0.00112879)
(0.0814179 0 -0.000932126)
(0.0822504 0 -0.000732745)
(0.0828824 0 -0.000531222)
(0.0833121 0 -0.000328143)
(0.0835383 0 -0.000124102)
(0.0835602 0 8.03024e-05)
(0.0833778 0 0.000284471)
(0.0829916 0 0.000487807)
(0.0824028 0 0.000689713)
(0.0816131 0 0.000889602)
(0.0806248 0 0.00108689)
(0.0794407 0 0.00128102)
(0.0780644 0 0.00147143)
(0.0764999 0 0.00165758)
(0.0747515 0 0.00183895)
(0.0728244 0 0.00201504)
(0.0707242 0 0.00218537)
(0.0684567 0 0.00234949)
(0.0660284 0 0.00250697)
(0.0634461 0 0.00265742)
(0.0607172 0 0.00280045)
(0.0578491 0 0.00293573)
(0.0548498 0 0.00306295)
(0.0517274 0 0.00318182)
(0.0484906 0 0.00329209)
(0.0451479 0 0.00339355)
(0.0417083 0 0.00348602)
(0.0381808 0 0.00356934)
(0.0345747 0 0.0036434)
(0.0308993 0 0.0037081)
(0.0271639 0 0.00376339)
(0.023378 0 0.00380924)
(0.019551 0 0.00384566)
(0.0156924 0 0.00387267)
(0.0118115 0 0.00389034)
(0.00791758 0 0.00389874)
(0.00401991 0 0.003898)
(0.000127539 0 0.00388824)
(-0.00375058 0 0.00386961)
(-0.00760569 0 0.0038423)
(-0.0114292 0 0.00380649)
(-0.0152127 0 0.00376239)
(-0.018948 0 0.00371023)
(-0.0226272 0 0.00365025)
(-0.0262426 0 0.0035827)
(-0.0297868 0 0.00350783)
(-0.0332526 0 0.00342592)
(-0.036633 0 0.00333725)
(-0.0399215 0 0.0032421)
(-0.0431118 0 0.00314075)
(-0.0461978 0 0.0030335)
(-0.0491737 0 0.00292064)
(-0.0520341 0 0.00280247)
(-0.0547739 0 0.00267928)
(-0.0573881 0 0.00255137)
(-0.0598722 0 0.00241902)
(-0.062222 0 0.00228253)
(-0.0644333 0 0.0021422)
(-0.0665026 0 0.00199829)
(-0.0684264 0 0.0018511)
(-0.0702016 0 0.00170091)
(-0.0718252 0 0.00154799)
(-0.0732948 0 0.00139261)
(-0.074608 0 0.00123503)
(-0.0757627 0 0.00107554)
(-0.0767571 0 0.000914381)
(-0.0775898 0 0.000751819)
(-0.0782594 0 0.000588109)
(-0.078765 0 0.000423506)
(-0.0791057 0 0.000258261)
(-0.079281 0 9.26257e-05)
(-0.0792908 0 -7.3149e-05)
(-0.0791349 0 -0.000238813)
(-0.0788136 0 -0.000404117)
(-0.0783273 0 -0.000568809)
(-0.077677 0 -0.000732637)
(-0.0768634 0 -0.000895347)
(-0.0758879 0 -0.00105668)
(-0.0747519 0 -0.00121639)
(-0.0734573 0 -0.0013742)
(-0.0720059 0 -0.00152985)
(-0.0704003 0 -0.00168308)
(-0.0686428 0 -0.0018336)
(-0.0667363 0 -0.00198116)
(-0.0646839 0 -0.00212547)
(-0.0624891 0 -0.00226624)
(-0.0601554 0 -0.00240319)
(-0.0576868 0 -0.00253604)
(-0.0550877 0 -0.00266449)
(-0.0523624 0 -0.00278825)
(-0.0495159 0 -0.00290703)
(-0.0465533 0 -0.00302052)
(-0.04348 0 -0.00312845)
(-0.0403016 0 -0.0032305)
(-0.0370243 0 -0.0033264)
(-0.0336543 0 -0.00341585)
(-0.0301982 0 -0.00349856)
(-0.0266629 0 -0.00357427)
(-0.0230555 0 -0.0036427)
(-0.0193834 0 -0.00370358)
(-0.0156542 0 -0.00375668)
(-0.011876 0 -0.00380173)
(-0.00805676 0 -0.00383853)
(-0.00420493 0 -0.00386685)
(-0.000329064 0 -0.00388651)
(0.00356209 0 -0.00389732)
(0.00745961 0 -0.00389913)
(0.0113544 0 -0.0038918)
(0.0152373 0 -0.00387523)
(0.0190991 0 -0.00384932)
(0.0229303 0 -0.00381401)
(0.0267215 0 -0.00376927)
(0.0304633 0 -0.00371509)
(0.0341462 0 -0.00365149)
(0.037761 0 -0.00357853)
(0.0412982 0 -0.00349629)
(0.0447486 0 -0.00340489)
(0.0481031 0 -0.00330447)
(0.0513529 0 -0.00319522)
(0.0544891 0 -0.00307735)
(0.0575033 0 -0.00295111)
(0.0603872 0 -0.00281676)
(0.0631329 0 -0.00267462)
(0.0657328 0 -0.00252502)
(0.0681795 0 -0.00236835)
(0.0704663 0 -0.00220498)
(0.0725865 0 -0.00203536)
(0.0745342 0 -0.00185992)
(0.0763039 0 -0.00167915)
(0.0778903 0 -0.00149353)
(0.0792889 0 -0.0013036)
(0.0804957 0 -0.00110988)
(0.0815072 0 -0.000912931)
(0.0823204 0 -0.000713317)
(0.0829329 0 -0.000511617)
(0.0833429 0 -0.000308419)
(0.0835493 0 -0.000104317)
(0.0835514 0 0.000100091)
(0.0833493 0 0.000304206)
(0.0829434 0 0.000507428)
(0.0823351 0 0.000709165)
(0.081526 0 0.000908828)
(0.0805186 0 0.00110584)
(0.0793158 0 0.00129963)
(0.0779211 0 0.00148965)
(0.0763385 0 0.00167536)
(0.0745726 0 0.00185623)
(0.0726286 0 0.00203179)
(0.0705118 0 0.00220154)
(0.0682285 0 0.00236504)
(0.065785 0 0.00252186)
(0.0631882 0 0.0026716)
(0.0604454 0 0.0028139)
(0.0575643 0 0.00294841)
(0.0545527 0 0.00307483)
(0.0514189 0 0.00319287)
(0.0481714 0 0.0033023)
(0.0448189 0 0.0034029)
(0.0413704 0 0.00349449)
(0.0378349 0 0.00357692)
(0.0342217 0 0.00365007)
(0.0305401 0 0.00371387)
(0.0267994 0 0.00376824)
(0.0230091 0 0.00381318)
(0.0191786 0 0.00384868)
(0.0153174 0 0.00387479)
(0.0114349 0 0.00389155)
(0.0075402 0 0.00389907)
(0.00364265 0 0.00389745)
(-0.00024873 0 0.00388682)
(-0.00412501 0 0.00386735)
(-0.00797742 0 0.0038392)
(-0.0117974 0 0.00380258)
(-0.0155766 0 0.00375769)
(-0.0193068 0 0.00370476)
(-0.0229802 0 0.00364404)
(-0.026589 0 0.00357576)
(-0.0301259 0 0.0035002)
(-0.0335837 0 0.00341763)
(-0.0369556 0 0.00332831)
(-0.0402348 0 0.00323255)
(-0.0434153 0 0.00313062)
(-0.0464908 0 0.00302281)
(-0.0494558 0 0.00290943)
(-0.0523048 0 0.00279076)
(-0.0550326 0 0.0026671)
(-0.0576344 0 0.00253874)
(-0.0601057 0 0.00240598)
(-0.0624422 0 0.00226911)
(-0.06464 0 0.00212841)
(-0.0666953 0 0.00198418)
(-0.0686048 0 0.00183669)
(-0.0703655 0 0.00168622)
(-0.0719743 0 0.00153304)
(-0.0734288 0 0.00137744)
(-0.0747267 0 0.00121967)
(-0.075866 0 0.00106)
(-0.0768448 0 0.000898698)
(-0.0776618 0 0.000736014)
(-0.0783156 0 0.000572206)
(-0.0788052 0 0.000407529)
(-0.0791299 0 0.000242236)
(-0.0792892 0 7.65765e-05)
(-0.0792829 0 -8.91985e-05)
(-0.079111 0 -0.000254839)
(-0.0787737 0 -0.000420094)
(-0.0782715 0 -0.000584714)
(-0.0776053 0 -0.000748445)
(-0.076776 0 -0.000911033)
(-0.0757849 0 -0.00107222)
(-0.0746335 0 -0.00123176)
(-0.0733235 0 -0.00138937)
(-0.0718572 0 -0.0015448)
(-0.0702367 0 -0.00169777)
(-0.0684646 0 -0.00184803)
(-0.0665439 0 -0.00199528)
(-0.0644776 0 -0.00213926)
(-0.0622691 0 -0.00227967)
(-0.0599222 0 -0.00241624)
(-0.0574408 0 -0.00254867)
(-0.0548292 0 -0.00267668)
(-0.052092 0 -0.00279997)
(-0.049234 0 -0.00291825)
(-0.0462605 0 -0.00303122)
(-0.0431767 0 -0.00313859)
(-0.0399885 0 -0.00324006)
(-0.036702 0 -0.00333535)
(-0.0333234 0 -0.00342415)
(-0.0298593 0 -0.00350621)
(-0.0263167 0 -0.00358122)
(-0.0227026 0 -0.00364893)
(-0.0190247 0 -0.00370907)
(-0.0152904 0 -0.00376139)
(-0.0115078 0 -0.00380566)
(-0.0076851 0 -0.00384164)
(-0.00383056 0 -0.00386914)
(4.71755e-05 0 -0.00388794)
(0.00393934 0 -0.00389789)
(0.007837 0 -0.00389882)
(0.0117311 0 -0.0038906)
(0.0156123 0 -0.00387313)
(0.0194715 0 -0.00384631)
(0.0232993 0 -0.00381009)
(0.0270861 0 -0.00376443)
(0.0308226 0 -0.00370934)
(0.0344994 0 -0.00364483)
(0.038107 0 -0.00357097)
(0.0416362 0 -0.00348784)
(0.0450777 0 -0.00339556)
(0.0484225 0 -0.00329428)
(0.0516616 0 -0.00318419)
(0.0547864 0 -0.00306549)
(0.0577884 0 -0.00293845)
(0.0606592 0 -0.00280333)
(0.0633912 0 -0.00266045)
(0.0659765 0 -0.00251016)
(0.068408 0 -0.00235282)
(0.0706789 0 -0.00218883)
(0.0727827 0 -0.00201862)
(0.0747135 0 -0.00184264)
(0.0764655 0 -0.00166138)
(0.078034 0 -0.00147532)
(0.0794142 0 -0.001285)
(0.0806023 0 -0.00109094)
(0.0815947 0 -0.00089371)
(0.0823885 0 -0.000693869)
(0.0829815 0 -0.000491998)
(0.0833718 0 -0.000288686)
(0.0835585 0 -8.45285e-05)
(0.0835408 0 0.000119877)
(0.0833189 0 0.000323932)
(0.0828934 0 0.000527036)
(0.0822655 0 0.000728598)
(0.0814371 0 0.000928029)
(0.0804107 0 0.00112475)
(0.0791891 0 0.0013182)
(0.077776 0 0.00150783)
(0.0761755 0 0.00169309)
(0.0743921 0 0.00187347)
(0.0724311 0 0.00204848)
(0.0702979 0 0.00221765)
(0.0679988 0 0.00238052)
(0.0655401 0 0.00253667)
(0.0629289 0 0.00268571)
(0.0601724 0 0.00282727)
(0.0572782 0 0.00296101)
(0.0542545 0 0.00308663)
(0.0511093 0 0.00320385)
(0.0478512 0 0.00331243)
(0.0444891 0 0.00341217)
(0.0410317 0 0.00350288)
(0.0374883 0 0.00358441)
(0.0338681 0 0.00365666)
(0.0301803 0 0.00371954)
(0.0264344 0 0.00377301)
(0.0226398 0 0.00381703)
(0.018806 0 0.00385162)
(0.0149423 0 0.00387682)
(0.0110581 0 0.00389268)
(0.0071628 0 0.00389931)
(0.00326545 0 0.00389681)
(-0.000624858 0 0.00388532)
(-0.0044992 0 0.003865)
(-0.00834885 0 0.00383602)
(-0.0121652 0 0.00379859)
(-0.01594 0 0.00375291)
(-0.0196651 0 0.00369922)
(-0.0233326 0 0.00363775)
(-0.0269348 0 0.00356876)
(-0.0304643 0 0.00349251)
(-0.0339141 0 0.00340927)
(-0.0372772 0 0.00331932)
(-0.0405472 0 0.00322294)
(-0.0437178 0 0.00312043)
(-0.0467829 0 0.00301207)
(-0.0497368 0 0.00289816)
(-0.0525743 0 0.002779)
(-0.0552901 0 0.00265487)
(-0.0578795 0 0.00252607)
(-0.0603379 0 0.0023929)
(-0.0626611 0 0.00225565)
(-0.0648453 0 0.0021146)
(-0.0668866 0 0.00197004)
(-0.0687819 0 0.00182224)
(-0.0705279 0 0.0016715)
(-0.0721219 0 0.00151808)
(-0.0735614 0 0.00136225)
(-0.074844 0 0.00120429)
(-0.0759678 0 0.00104445)
(-0.076931 0 0.000883002)
(-0.0777322 0 0.000720198)
(-0.0783702 0 0.000556295)
(-0.0788438 0 0.000391548)
(-0.0791525 0 0.000226208)
(-0.0792958 0 6.05261e-05)
(-0.0792735 0 -0.000105247)
(-0.0790855 0 -0.000270861)
(-0.0787323 0 -0.000436066)
(-0.0782142 0 -0.00060061)
(-0.0775321 0 -0.000764242)
(-0.0766871 0 -0.000926706)
(-0.0756804 0 -0.00108775)